21
Properties=species:S:1:pos:R:3:forces:R:3 energy=-17618.23290374 pbc="F F F"
C 2.30376427 -0.30587933 0.18615031 -0.82186959 -1.73573316 -0.28861432
C 0.84027036 1.89465206 -0.45600535 0.75550864 -1.28404717 0.27381772
C 2.90773242 0.93052894 0.27062284 1.30344877 -0.42267695 -0.10687454
C 2.17193982 2.02017022 -0.11356165 -1.02413202 -0.36403106 0.30731771
C -3.41640020 0.71443949 -0.31764537 -0.10692319 -0.29599010 -0.02458669
C 0.94058896 -0.48981459 -0.16472233 -0.60136724 -1.39286670 -0.25755786
C 0.20867225 0.65363696 -0.48560329 -0.04061978 0.65680913 0.60588266
O -1.04563076 -1.90944342 -0.18934745 -1.36083543 -0.66885973 -0.33318430
O -1.73220969 0.66399092 1.44910984 -0.65258460 0.29996759 -0.69998520
O 0.95582810 -2.87688804 0.16908089 1.02872838 -0.56043235 0.04126636
C 0.14922975 -1.86040916 -0.11854030 1.81164586 2.55083411 0.65078719
C -2.05716383 0.70296801 0.26898707 0.70917623 -0.68409486 2.38118469
O -1.13544291 0.66738507 -0.70378351 0.12101227 0.13259730 -2.04943019
H 0.43790460 -3.68330361 0.34913023 -0.35849105 -0.08901304 -0.09304304
H 2.80120426 -1.25216172 0.37378758 0.64249379 -0.26681183 0.37539883
H 0.27771614 2.76606970 -0.40023275 -1.60279415 1.97864884 -0.54964117
H 3.94627599 1.09257866 0.61380793 -0.12816359 -0.37461218 -0.02152111
H 2.49541931 2.98530334 0.12661814 1.01175946 2.05362340 0.05681557
H -4.05182852 -0.06866513 0.11137520 -0.18249203 -0.04820058 0.37660262
H -3.86109358 1.69334064 -0.22200667 -0.57337106 0.83069362 0.46467767
H -3.34186506 0.54757719 -1.37600942 0.06987040 -0.31580420 -1.10931267
21
Properties=species:S:1:pos:R:3:forces:R:3 energy=-17617.85159742 pbc="F F F"
C 2.27625318 -0.48442843 0.07298697 1.67002208 2.51567057 -0.96756656
C 0.75466511 1.95450619 -0.00322233 0.55636198 -3.15513298 -0.30006668
C 2.89924881 0.82373802 0.21894259 -0.34542676 -2.70721011 0.00312111
C 2.14662427 1.97758618 0.26419873 -1.34642409 0.94812234 0.00823067
C -3.40597784 0.24635991 -0.09153040 0.06775557 -0.30445438 -0.27126225
C 0.89103159 -0.56460095 -0.13456472 0.92184895 -0.73708627 -0.84324410
C 0.19094352 0.62592285 -0.23102420 -1.27235472 3.04660763 1.29653209
O -0.79997444 -2.04513724 -0.98270151 0.00624043 -1.02655107 -0.02134077
O -2.03731627 1.54103058 1.41499947 0.39300333 0.49271822 0.06778524
O 1.14390386 -2.81787476 -0.04263207 1.52903069 -0.38410253 0.22942022
C 0.29419913 -1.90862710 -0.47712558 -0.90671369 2.50655442 0.41050838
C -2.13332952 0.90645113 0.38358414 -3.14959991 0.28727956 2.68988576
O -1.19620668 0.52282235 -0.39197576 3.80617538 -1.07818031 -3.20143953
H 0.71665522 -3.61551951 0.22350245 -0.99645286 -1.74443948 -0.05343000
H 2.97118424 -1.29153932 -0.22083349 -0.37840856 -0.24569767 0.64041778
H 0.11407951 2.81476177 -0.12594445 -0.28167183 0.57890613 0.25739264
H 3.99456241 0.85216130 0.23963635 0.15085584 0.12771169 0.26521805
H 2.61066770 2.92348316 0.55045786 0.24252714 0.38408217 -0.25327584
H -3.65735036 -0.61482691 0.54609725 0.01856414 -0.04884238 0.40146210
H -4.24896313 0.91631777 -0.11628753 -0.77269369 0.71519364 0.22861089
H -3.26591590 -0.17052280 -1.08685834 0.08736049 -0.17114920 -0.58695919
21
Properties=species:S:1:pos:R:3:forces:R:3 energy=-17617.75975930 pbc="F F F"
C 2.13235030 -1.18317888 -0.36541722 -2.53510842 -1.05184260 3.04180723
C 0.66413526 1.00362824 -1.57637053 1.94454881 -1.22738149 -0.98186442
C 2.61171566 -0.57350937 -1.44366815 0.62568109 2.07435678 -4.24157296
C 1.93129735 0.51340838 -2.11437197 -2.04644092 0.04822644 2.45465073
C -3.09188630 1.88185190 0.47635379 0.90048586 -2.25350977 0.03445027
C 0.87661131 -0.70331214 0.18598740 -0.30222050 1.16910270 0.68597382
C 0.17321410 0.42724000 -0.40932054 1.06359943 -1.24203478 0.86614096
O 1.16969426 -2.11919935 2.06906353 -0.68869024 0.16375897 -0.01392741
O -2.42595069 0.45354395 -1.35396885 -0.64047727 -2.04717903 -3.79411500
O -0.50790980 -0.60528879 2.26622812 0.88140868 -1.15995035 -0.91529053
C 0.50635405 -1.22102402 1.54876648 0.84370453 0.18948127 -0.35711145
C -2.16337560 1.07709451 -0.41451353 1.63713381 1.26331498 4.86975162
O -0.86505127 1.06642397 0.23390988 -0.65269731 -0.42514783 -0.76661725
H -0.45818761 -1.28446559 2.97490770 -0.56050881 0.33010226 0.84788360
H 2.66493272 -2.02818427 0.14702502 -0.51807167 0.54406948 -0.27991155
H -0.00919523 1.74634869 -2.01855356 0.52222416 0.45944722 -0.37465038
H 3.45729825 -0.99691962 -2.00160162 0.50793360 0.16349322 0.27430366
H 2.40291477 1.11554710 -2.86950522 0.40390630 0.04402655 -1.03190899
H -4.02650386 1.65046664 -0.04942115 -0.79104278 0.30910370 0.73031368
H -2.92330558 1.49380013 1.56987318 -0.56226462 1.05483320 -1.68075674
H -2.75010094 2.86435472 0.21612227 -0.03310373 1.59372906 0.63245106
21
Properties=species:S:1:pos:R:3:forces:R:3 energy=-17617.96600854 pbc="F F F"
C 2.27023415 -0.30277689 0.04084297 5.41640578 2.03754613 0.86959189
C 0.79254889 1.97081452 -0.16191207 0.36880714 1.29144223 -0.38224707
C 2.94105157 0.99949168 0.11749627 -2.76553009 -3.66925507 -0.35631816
C 2.17271599 2.10474853 -0.00601820 0.72568801 1.14089359 0.03725236
C -3.44486407 0.48782977 -0.46760017 1.76332660 -0.38791728 0.82201743
C 0.96357834 -0.43109011 -0.14189506 -4.00876012 -1.17778691 -0.95848825
C 0.16104926 0.74867607 -0.32090049 1.16030485 1.03817775 1.03005862
O -0.94546957 -1.79983924 -0.42590027 0.60594627 -0.60733045 0.16644331
O -1.82495680 0.22249623 1.47052605 -0.77353048 0.51703701 -0.18732910
O 0.98729464 -2.85068005 0.16261266 1.72933923 2.13633425 -0.46828961
C 0.25527706 -1.75191479 -0.16939292 -1.11960722 0.15229360 -0.09401538
C -2.10946690 0.57277962 0.34439787 -1.05468943 -1.65377697 -0.29025268
O -1.16497310 0.90436732 -0.55816509 0.06787476 -0.22186185 -1.31877198
H 0.40936707 -3.51521069 0.48783884 -1.55165121 -1.53848577 0.33915687
H 3.00289656 -1.11557470 0.16842581 -0.64492178 -0.52638780 -0.01378369
H 0.20397175 2.89222068 -0.18483329 -0.37133433 0.04478132 -0.17010091
H 3.95058534 1.01380322 0.35641683 2.48105231 0.14429248 0.27167790
H 2.79671247 3.01767023 0.02171791 -0.96107705 0.53541592 0.09125761
H -4.27880228 0.57973707 0.17865651 -1.39754282 0.47539572 0.99026920
H -3.44597928 1.16698473 -1.31021518 -0.05583310 0.72939060 -0.37662602
H -3.52922961 -0.51597421 -0.90553850 0.38573261 -0.46019850 -0.00150235
21
Properties=species:S:1:pos:R:3:forces:R:3 energy=-17618.18188927 pbc="F F F"
C 2.23280902 -0.36375438 0.37935019 -1.81300073 0.22230464 -0.40098619
C 0.91620062 1.98066561 -0.39126358 1.66794807 -0.18622975 0.82081318
C 2.92053599 0.83915048 0.42126884 -1.98345686 1.11165844 -0.74507449
C 2.24871349 2.07364788 0.05184967 0.63946493 -0.98698580 0.71236465
C -3.37982496 0.06928748 -0.22327949 3.22781776 0.79363091 0.50069744
C 0.79077436 -0.39870844 0.02126836 4.15906553 -3.46988020 0.82691944
C 0.23928712 0.75270112 -0.39856739 -1.43241295 2.02999686 -0.43838798
O -1.15072735 -1.79565798 -0.18906896 0.54605227 -0.51872653 0.28986701
O -1.61240833 0.81004662 1.44110053 -0.74973451 0.09862238 -0.35737817
O 0.84381542 -2.77222083 -0.44622532 1.95932571 1.05754983 0.50443495
C 0.07695427 -1.71959085 -0.15352607 -1.16386665 1.24779790 -0.38554857
C -2.00302140 0.61379790 0.31475297 0.05910185 -1.13712250 0.00994513
O -1.07318459 0.75663104 -0.78227595 -1.54917307 0.30847774 0.20578314
H 0.25607269 -3.48310062 -0.66167203 -1.17105006 -1.31773037 -0.26661509
H 2.78920447 -1.26243580 0.65001499 -0.19866587 -0.47385234 0.03495117
H 0.33862242 2.84361851 -0.60774384 -0.71732349 1.22372862 -0.45505665
H 3.93213221 0.84863244 0.74996507 1.30880237 0.11047584 0.38305635
H 2.81938309 3.02786143 0.27553375 -0.79656083 -0.62328554 -0.63531522
H -3.17290895 -0.96566304 -0.49862829 0.11120541 -0.30850679 -0.44996828
H -4.13496919 0.06866237 0.52364640 -1.08896702 0.47984322 1.01186014
H -3.49350574 0.72304082 -1.06517091 -1.01457199 0.33823338 -1.16636186
21
Properties=species:S:1:pos:R:3:forces:R:3 energy=-17617.35452226 pbc="F F F"
C 1.97968715 -1.29873074 -0.04467072 -0.20746531 2.26402913 -0.30907974
C 1.37385524 1.44407947 -0.78176403 -1.71529155 -0.12548306 0.60346058
C 2.93492722 -0.49777884 -0.62737895 -1.07166164 1.72831305 -0.80362684
C 2.50982961 0.79924323 -1.15787113 3.44453786 -0.72069493 -0.87551885
C -2.97150573 2.05369033 0.28305811 2.43729455 -1.61108807 2.30794074
C 0.69444456 -0.66491379 0.11393682 -1.09365753 -4.30150975 3.51432691
C 0.46532718 0.65845765 -0.00400656 -0.48869373 2.53143637 -1.32089201
O -0.89569570 -1.32704366 2.05139875 2.06175996 -0.90595033 -3.90598705
O -1.81565449 0.94971172 -1.53986898 0.25796065 0.35199588 1.44354222
O -0.29655481 -2.85798004 0.28662168 -0.36990371 1.66013259 2.02432670
C -0.28312649 -1.56977236 0.96751101 -0.97163528 -0.55513567 0.98946413
C -1.81922261 1.36582508 -0.38850501 1.06438213 -0.73296474 -0.81857323
O -0.68215051 1.28435154 0.47883880 -0.72717231 -0.33480918 -0.72620537
H -0.74507677 -3.49940008 0.90837910 0.18320716 0.64615730 -0.40610567
H 2.30733695 -2.16133489 0.50064204 -0.31612024 -1.19832160 0.18516207
H 1.01451967 2.46398792 -1.04261513 0.58504331 -0.32053447 -0.14000727
H 3.99401568 -0.73114605 -0.63431128 0.47188709 -0.36454811 -0.35283349
H 3.27848921 1.24941740 -1.86310283 -0.76703793 0.08599508 0.76126051
H -2.52651728 2.97918276 0.69545369 -0.80558664 0.43437048 -0.26682114
H -3.68740507 1.97351742 -0.47245274 -2.08690103 0.92365263 -1.28549223
H -3.25966866 1.41003624 1.17642606 0.11505415 0.54495739 -0.61834089
21
Properties=species:S:1:pos:R:3:forces:R:3 energy=-17617.76488804 pbc="F F F"
C 1.91548501 -1.37184919 -0.37441846 -1.43079428 0.41946919 -1.04805865
C 1.37381366 1.39195919 -0.44797781 3.48677939 0.60422600 -1.66849988
C 2.78127389 -0.53208808 -1.14481613 -0.67602164 -0.56841490 2.34147940
C 2.57323755 0.83943232 -1.04202023 -0.56792356 1.76632589 -0.14117404
C -3.10614964 1.45631852 0.16078031 0.20323904 -1.38152860 0.86294394
C 0.64353568 -0.90379605 0.12560755 1.02967599 -0.95145906 0.02647079
C 0.48745006 0.47694891 -0.04901920 -4.47568195 0.44252278 2.13669914
O -1.17838787 -1.30671093 1.76862358 0.26294108 -0.43783561 -0.63031581
O -1.49118219 2.33440296 -1.36662006 0.79988434 -1.32817656 0.75380595
O -0.01388395 -3.05027702 0.87244631 1.79819513 1.26780602 -2.39572037
C -0.34960968 -1.75114288 0.99283660 0.89825280 0.90880142 0.19430682
C -1.67683650 1.61652101 -0.38246454 -1.75005451 2.49670040 -0.90452902
O -0.77315892 1.04029426 0.42766185 1.18012924 -1.51396289 -0.01855246
H -0.41787832 -3.66346078 1.44085193 -1.66729625 -1.22753997 1.94884034
H 2.14430813 -2.43102948 -0.36931099 0.03161069 -0.62168873 0.37823424
H 1.20437924 2.47712499 -0.26528948 0.07128883 -0.55308521 -0.46530183
H 3.72704016 -0.99944356 -1.42384811 0.26331209 0.19630420 -0.61969108
H 3.29776080 1.57095143 -1.44441932 0.08566263 -0.20885237 0.00074783
H -3.76779778 2.33784083 0.00202756 0.48803691 -0.04145822 -0.00167991
H -3.54814467 0.61994992 -0.46669292 0.13534447 0.39027678 0.58236267
H -3.08560853 1.12023177 1.26482277 -0.16658055 0.34156954 -1.33236802
21
Properties=species:S:1:pos:R:3:forces:R:3 energy=-17617.89408230 pbc="F F F"
C 2.23580236 -0.82797456 0.07614242 1.50843821 0.56716565 -1.53829798
C 1.03834209 1.14558912 -1.58798879 0.51487723 -0.32109805 0.06657291
C 2.94079914 -0.40061700 -1.08592351 -1.16000033 -0.10603858 0.44353369
C 2.27713414 0.56268296 -1.88543219 0.56018418 -1.43869677 1.69420346
C -3.15702022 1.74466554 0.29440701 -0.13841232 0.20766411 1.54687420
C 0.98616518 -0.38091437 0.38200079 -3.04894523 2.53691267 -1.79125567
C 0.38432337 0.69822046 -0.45422616 -1.34206088 -0.63923970 1.70280200
O -0.68110391 -0.60028507 2.08385051 -1.84703077 1.25461632 1.40607600
O -2.29346784 -0.27607104 -0.73704942 -0.03272382 -0.60252408 -0.32214537
O 0.32807162 -2.40757051 1.25695210 0.66194660 -2.35589465 0.02442744
C 0.08846491 -1.09238492 1.32227852 1.24546375 -0.61325011 0.39780425
C -2.11507982 0.80935240 -0.25759354 0.58118022 0.56762228 -0.00636873
O -0.85618417 1.38019320 -0.06956347 1.61710301 -0.96472739 -0.60833961
H -0.03449491 -3.03666251 1.96176388 -0.04994147 1.65195555 -0.73901054
H 2.69324475 -1.41918494 0.82091527 0.78447994 -1.59699159 0.80015349
H 0.62539176 1.89075984 -2.26878192 -0.26893952 0.28940854 0.04972149
H 3.88583436 -0.91881070 -1.42229452 -0.59947779 0.74985648 0.42703219
H 2.87339758 0.81959934 -2.69345026 0.86192877 1.10543499 -2.45779956
H -3.47238178 2.62064378 -0.31484974 0.19321549 -0.39635918 -0.38890108
H -4.06596740 1.12334116 0.57643548 0.73109915 0.65597866 -0.15850384
H -2.65734850 2.23004646 1.20180988 -0.77238439 -0.55179514 -0.54857874
21
Properties=species:S:1:pos:R:3:forces:R:3 energy=-17617.50641128 pbc="F F F"
C 2.37134914 -0.29580414 0.28228213 -1.58277853 2.91596226 -0.52504311
C 0.49631484 1.72742732 -0.55265212 0.73193702 1.12358631 -0.81474126
C 2.78766559 1.01466996 -0.21462290 0.17521627 -3.93161735 0.00841800
C 1.88604482 1.85708739 -0.77465599 -0.94960735 3.88568870 0.73637218
C -3.62520742 0.58620329 -0.18390303 -0.01372887 1.69477219 -0.08649634
C 0.97241231 -0.47206439 0.38745425 -0.09285607 -0.55264874 0.74278759
C 0.03973584 0.60734634 0.05711862 -0.10540290 -2.35747943 0.95773682
O -0.61999146 -2.06580899 1.29118123 2.15239969 0.17483081 -0.23690409
O -1.78603450 1.19483713 -1.65970372 -1.09040915 0.14866788 -2.06519074
O 1.40504438 -2.83241066 0.62968916 0.74148374 -1.18846347 0.29634722
C 0.54753007 -1.84512519 0.88907123 -4.11656468 0.77109858 -0.30874118
C -2.19261663 0.78274488 -0.60550699 -0.48860981 0.90285184 0.06903515
O -1.33146339 0.52314112 0.35272800 2.04304788 -1.51477814 2.34507277
H 0.99676875 -3.71174713 0.90639295 0.18382756 1.22634508 -0.16787104
H 2.93266194 -1.09718328 0.73887121 1.02811558 -0.24292895 -0.21682007
H -0.26285769 2.44634245 -0.89301641 0.52034843 0.26030339 0.10146381
H 3.78449938 1.17376116 -0.53405102 1.88014200 0.29012675 0.34200035
H 2.27694588 2.93364189 -0.97971598 -0.56735067 -1.63722257 -0.52860677
H -3.84093061 0.47437852 0.92611286 0.36059570 0.52469262 -0.93492445
H -4.16737357 1.42098112 -0.76840210 0.10590215 -1.20429283 1.01419722
H -3.81636236 -0.37137694 -0.61596269 -0.91570802 -1.28949503 -0.72809209
21
Properties=species:S:1:pos:R:3:forces:R:3 energy=-17617.50181280 pbc="F F F"
C 2.20829130 -0.37344487 -0.27362982 -2.89327448 -0.59691476 1.37604217
C 0.72092902 2.03289264 0.16295145 3.76217722 -1.44938022 -0.38535157
C 2.87909110 0.77021072 -0.06227376 -1.21859361 3.57693801 -0.87590482
C 2.16013450 2.03642726 0.06638046 -1.59377210 -1.62510927 0.45254803
C -3.49128567 0.95315182 0.00481768 2.86695183 -0.11791795 -2.30170787
C 0.81607030 -0.40090787 0.11685888 0.55734764 0.44373074 -0.73570487
C 0.10847362 0.78507935 0.23649620 -0.24688861 0.69529793 1.10275482
O -0.78749209 -2.02698033 0.89336930 -1.26487425 -0.41104579 0.34860804
O -1.80881191 -0.04247535 -1.56384005 0.82523686 0.99980912 1.07070689
O 1.21044269 -2.59433315 0.03032828 -1.11681525 -3.81811861 -0.10882971
C 0.25871312 -1.72378908 0.38407190 0.63035962 1.00290036 -0.23890122
C -2.04563887 0.54467412 -0.52640230 -3.52738678 -1.04178485 1.21294927
O -1.24575097 0.87123499 0.56765174 0.89062953 -0.76384040 -1.88234683
H 0.71228147 -3.48260103 0.09779126 1.03241586 1.04563241 0.01135697
H 2.52447792 -1.35989293 -0.54507019 1.27190333 -0.36339646 -0.29445700
H 0.12645247 2.90010616 0.16444139 -0.88115481 1.59825842 0.20915525
H 3.87235461 0.85717417 -0.37586730 2.36085271 0.08977933 -0.16172708
H 2.68405657 2.98191745 0.13244133 0.45314318 0.46085583 -0.13340993
H -3.49924190 1.99968953 -0.26102581 -0.80734409 0.96380889 -0.26379664
H -4.25133946 0.33418937 -0.40568584 -1.10183786 -0.54110973 -0.91921681
H -3.46767476 0.87150559 1.04142660 0.00092411 -0.14839288 2.51723288
21
Properties=species:S:1:pos:R:3:forces:R:3 energy=-17617.74512641 pbc="F F F"
C 1.99000723 -1.06087222 -0.28768471 1.93613061 0.56859740 -3.01707311
C 0.84873002 1.12516054 -1.50493786 0.52234808 0.40995862 -0.29745917
C 2.54084613 -0.60199599 -1.55704289 -1.11253061 1.37395732 1.04419269
C 1.98391382 0.56747906 -2.12005554 -0.17805729 -0.16713961 1.08998949
C -3.18380242 1.17776710 0.42584314 1.45038208 -0.65644028 2.00234634
C 0.90583935 -0.49948710 0.31771144 -1.39145465 1.28346512 0.60713988
C 0.34047203 0.65655237 -0.31680393 -0.50270655 -1.43003673 0.97794024
O 0.38515565 -2.40441819 1.73936742 0.62924669 1.93095050 -0.53856866
O -2.07057950 0.62062505 -1.57873211 0.94666827 0.05468639 3.54137168
O -0.25341902 -0.38645009 2.49272668 0.76508775 1.43041432 -1.39360584
C 0.36745461 -1.16825000 1.56422757 -0.86686740 -2.16333042 0.71215866
C -1.96484999 0.88012148 -0.33656340 -1.36767493 0.83390585 -5.32612837
O -0.81191795 1.15353801 0.29195346 0.66155924 -0.07904739 0.15815937
H -0.42856887 -0.91871049 3.27109486 -0.22634359 -0.93071447 0.57812246
H 2.56224554 -1.72172393 0.29422910 0.83918042 -1.84748478 0.70887304
H 0.47706038 2.01138845 -1.98158152 -0.76819354 0.81407210 -0.12331577
H 3.44042789 -0.92186236 -2.06896700 0.59848838 -0.87828623 0.34541241
H 2.44947792 1.24071052 -2.86672539 0.06041928 -0.85585464 -0.36245122
H -3.37955743 0.31438517 1.04288686 -0.53942329 -1.14170842 0.43251018
H -3.08007507 1.91728487 1.20200317 0.44925424 1.09116629 0.50792928
H -3.99640019 1.39467197 -0.18163247 -1.90551309 0.35886910 -1.64754364
21
Properties=species:S:1:pos:R:3:forces:R:3 energy=-17617.37099585 pbc="F F F"
C 2.29448834 -0.35276199 0.14563659 1.75947154 0.36289417 -1.40668397
C 0.69717926 0.40271910 -1.96808278 -1.63048401 -0.01456772 -0.17179228
C 2.93551644 -0.01491767 -1.11367255 -4.02700791 0.34728135 0.16175608
C 2.07402360 0.35375603 -2.18333952 0.45430183 -0.71305042 1.56787847
C -3.43410839 0.98135566 -0.28967235 -1.11828047 -0.95485929 0.47558352
C 0.91444598 -0.41630748 0.35120856 -2.42914245 0.40296471 -2.93648851
C 0.05791390 0.04335465 -0.77773881 0.30699288 -0.82339842 1.25699597
O -0.57431834 -2.09109630 1.37783796 0.32047585 0.55359352 -0.52955010
O -1.40333239 1.95119696 0.45796619 0.16469758 0.57932738 -0.43314211
O 0.68706487 -0.70469342 2.65450135 0.78814895 1.14546203 -2.52364264
C 0.22668964 -1.17279261 1.42767003 0.95375465 0.86787774 1.42334595
C -2.03347807 1.15363539 -0.19604112 3.39037068 -0.25273668 2.06627981
O -1.41684241 0.01293743 -0.75833432 2.75531880 0.43901101 -0.23919442
H 0.27018407 -1.37290072 3.13799540 -1.31508244 -2.06988347 2.86036570
H 3.03819918 -0.59104468 0.89575563 -0.08768655 -0.51949431 0.93678120
H -0.02125731 0.60300741 -2.77579560 0.20680253 0.28374393 -0.30238834
H 3.95487673 -0.11222765 -1.37182503 1.77044701 -0.14466940 0.38207789
H 2.46650144 0.48188330 -3.17722453 0.30761354 0.32982479 -0.78768065
H -3.43965775 0.34118437 -1.10337308 -1.16677426 -1.77071734 -2.40945515
H -3.78721649 0.35325778 0.53769205 -0.29724166 0.26319182 0.49435242
H -3.98162269 1.84856971 -0.52026690 -1.10669601 1.68820456 0.11460117
21
Properties=species:S:1:pos:R:3:forces:R:3 energy=-17617.75927602 pbc="F F F"
C 2.13364415 -0.36951724 0.35167846 1.48900720 3.74786661 -1.56355943
C 0.62816071 1.67667232 -0.61937257 -0.02432146 3.08448559 -1.68246097
C 2.77727863 0.95149149 0.12508915 -0.94714023 -1.67294352 0.39466961
C 2.00147939 1.99879229 -0.35984311 -1.43608083 -2.98762678 0.20102439
C -3.58354176 1.08103986 -0.31795659 1.23147340 1.65975052 -0.72612381
C 0.83527676 -0.61474275 -0.08051213 0.11520692 -0.66551936 0.97110939
C 0.00347174 0.46211320 -0.57957802 2.37600099 -2.83684817 1.62802362
O -0.31204989 -2.60937234 -0.63980874 -1.58118758 -2.21027301 -1.26542894
O -1.60265268 1.54211943 1.11798439 -0.63076092 0.32670969 -0.32215473
O 1.01818440 -2.60446968 1.24954335 -0.88116114 -0.73054621 -1.58002349
C 0.42473207 -2.06754585 0.11004371 1.38775252 3.49671259 1.49539953
C -2.09974784 1.06774219 0.12894355 -0.80715218 -1.08465646 -0.13161015
O -1.31412674 0.20061519 -0.73494069 -1.45161713 1.82067002 -0.06308917
H 0.77083190 -3.54253087 1.06501721 0.21226973 -0.19437696 0.72778834
H 2.79229822 -1.14140638 0.66732717 0.49691720 -1.13073726 0.59631862
H 0.02097115 2.49085703 -1.07931858 0.06117226 -0.03932096 0.39788040
H 3.85634088 1.12534145 0.27839630 -0.07845290 -0.32003572 0.24997414
H 2.46426704 2.91812159 -0.60791307 0.22964463 1.54055155 -0.28001594
H -3.73785988 0.54076828 -1.24760313 0.06942190 -0.41348407 -0.50000489
H -4.24505563 0.71025477 0.42454239 -0.67974794 -0.96294922 1.42334739
H -4.01575650 2.12045340 -0.46541151 0.84875562 -0.42742886 0.02893617
21
Properties=species:S:1:pos:R:3:forces:R:3 energy=-17617.08750909 pbc="F F F"
C 2.28734113 -1.01643794 -0.21847857 -0.07174073 -2.22944820 1.22739450
C 0.67864298 0.80674698 -1.60767484 -1.16445554 -0.29330689 -1.31650380
C 2.72161280 -0.64491868 -1.44778319 -1.56188991 2.47894133 -1.27142768
C 1.93032281 0.32742074 -2.12713885 -1.57370803 0.04565981 0.62450177
C -3.19045961 1.38489714 0.67471119 1.06757132 0.52873820 0.54445134
C 0.97117519 -0.65076004 0.20802854 0.87856113 -1.31014531 3.88012113
C 0.15526137 0.27819778 -0.36282803 0.69250417 2.46092355 -2.41458019
O 0.15261203 -2.52056677 1.43058282 -0.17193724 0.03432726 0.73999676
O -2.08504123 1.73051009 -1.44819026 -0.05130405 0.75509984 -3.75756409
O 0.13266536 -0.42126338 2.65088212 -0.35053066 -3.57390066 -1.78423322
C 0.39813426 -1.34291442 1.44759033 0.04422077 1.85784838 1.49186853
C -2.07491031 1.25752498 -0.37963866 -0.28636718 0.63044123 4.75097070
O -0.98098547 0.76183202 0.30246454 1.09127808 -1.66399115 -0.90832649
H -0.36010703 -1.08400921 3.26992351 0.98303057 1.25826898 -1.06015446
H 3.00022023 -1.78324275 0.27390870 -1.62583181 0.91575394 0.06041219
H -0.09881728 1.34504184 -2.30940004 1.78434043 -0.40231124 1.34844925
H 3.55084120 -1.09458572 -1.92873468 1.48665690 -0.35238401 -0.48368892
H 2.18773061 0.69905271 -3.11359583 0.30204592 0.04884850 -0.53169291
H -3.24926894 2.46265223 1.15424879 0.43295740 -1.83316538 -0.67855675
H -4.07447214 1.28346279 0.07199506 -1.31497178 -0.29741145 -0.15055214
H -3.01354531 0.54796481 1.42001560 -0.59042961 0.94121327 -0.31088558
21
Properties=species:S:1:pos:R:3:forces:R:3 energy=-17617.57200801 pbc="F F F"
C 1.58301993 -1.44174778 -0.89852341 0.80553553 -2.71840006 0.02831284
C 0.80869692 1.09731744 -1.36398715 0.44581713 1.55657801 -1.21179639
C 2.30752416 -0.67928319 -1.81386483 0.75823051 -1.25087875 0.15786235
C 1.96932266 0.62037224 -2.03588882 -2.42843550 0.59860829 0.45452299
C -2.63874951 2.35907150 0.62900020 1.88102328 3.27129445 2.24738509
C 0.39979496 -1.04744927 -0.27278842 0.58933936 -0.69083470 1.70049140
C 0.07350595 0.29106179 -0.50072852 -1.05820248 1.33602048 1.34220676
O -1.16221899 -1.53169993 1.58997543 -1.33984628 2.17369598 1.45476905
O -0.13574180 2.62951353 1.08690176 1.15465490 2.83158405 0.75346945
O 0.02618056 -3.24457646 0.89775395 0.59355998 0.77832734 0.57553804
C -0.27422646 -1.84524829 0.86496380 0.50461961 -3.11644358 -1.90338961
C -1.11532123 2.14734072 0.64252962 -1.30488092 -3.34758968 0.00074629
O -0.98687418 0.80756182 0.22218562 -0.38169958 -0.92561269 -1.77847446
H -0.42140279 -3.58883330 1.75569456 0.63044076 0.92069941 -1.67796021
H 1.98518715 -2.47549180 -0.68561578 -0.52534224 0.66294537 -0.11292867
H 0.43331477 2.14226837 -1.57588025 0.38612208 -0.81469097 0.30057216
H 3.14496710 -1.10726109 -2.38238475 0.12107886 -0.22468209 0.23840036
H 2.43977033 1.13512562 -2.84729185 0.53010875 1.03590752 -0.50456134
H -2.83536277 3.03037075 -0.22983627 -0.58366890 -0.10967576 0.13550851
H -3.07361736 1.40713495 0.63081724 -1.04201702 -1.84775839 -0.59573838
H -2.91911208 2.82806543 1.65901540 0.26356221 -0.11909423 -1.60493624
21
Properties=species:S:1:pos:R:3:forces:R:3 energy=-17618.10124805 pbc="F F F"
C 1.92845564 -1.19555535 -0.48478207 1.16255559 0.59990696 -2.17877453
C 0.81212804 1.14897165 -1.53459930 0.75167220 -0.09154701 -0.31195747
C 2.44044684 -0.63000643 -1.72312623 2.17423658 -0.67934346 1.47992010
C 1.96674584 0.61956921 -2.12225482 -0.32876992 -0.59628834 -0.50056863
C -3.03065746 1.43679055 0.67872051 -0.20840531 -1.52915991 -1.86966028
C 0.90195132 -0.57310190 0.18775100 -1.50227569 -0.72985397 1.96783499
C 0.33160786 0.56929490 -0.37487349 -0.85106843 1.11318121 0.18921166
O 0.81501657 -2.14475042 2.12786845 0.04155674 0.37724699 -0.93211171
O -2.16241394 0.25838765 -1.35428870 0.78928435 1.44921104 2.46503794
O -0.60323571 -0.36555944 2.16116949 1.06457450 -0.72435283 -0.88015835
C 0.38036137 -1.16789544 1.53788122 -0.14798613 1.04401199 0.73712597
C -1.95848961 0.87078310 -0.28808174 -1.53039235 -0.63257010 -0.32750612
O -0.74913943 1.18688538 0.27084812 0.40142997 -0.53644292 -1.31344697
H -0.68961715 -0.72246084 3.06876664 0.03905074 -0.33953919 -0.02023931
H 2.37747715 -2.05610621 -0.02476286 0.39497855 -0.88868069 0.22977683
H 0.35124565 1.99336869 -2.03567042 -0.38760458 0.57234303 0.26238660
H 3.46492793 -1.00337595 -2.17463567 -2.02035980 0.30067686 0.72973503
H 2.43989313 1.16189914 -2.94643182 0.04632357 -0.00759838 -0.29621867
H -3.33476858 2.33733852 0.16662204 -0.03041965 1.49905425 0.20516608
H -3.94239361 0.84720665 0.44942214 0.06059988 -0.37560123 0.59078931
H -2.76348333 1.49715798 1.74730209 0.08101922 0.17534560 -0.22634240
21
Properties=species:S:1:pos:R:3:forces:R:3 energy=-17617.41846590 pbc="F F F"
C 2.28230595 -0.44397087 -0.10612706 0.24350478 1.24595031 -1.87283344
C 0.83392351 1.91296829 0.52129648 1.38100291 1.61306170 0.21337263
C 2.96635543 0.83522620 -0.27138651 -3.50402558 -1.14107516 2.56699802
C 2.20812125 1.94074811 0.21715190 1.75471304 1.23218704 -1.67225529
C -3.50109620 0.63766677 0.07250030 -2.18720651 -1.14920313 -3.43929440
C 0.82310703 -0.51685286 -0.09324230 1.71880445 2.43109680 1.73853299
C 0.22128960 0.71501799 0.38017703 -3.66742841 -2.76855134 -0.57966929
O -1.05228537 -2.07032416 -0.02233468 -2.09843331 -0.64234353 -0.39760314
O -1.71060476 0.84681449 -1.46759592 -0.18336374 0.40883675 1.18354058
O 1.14709164 -2.67388969 0.32928377 -0.68046821 -1.42525787 -0.13087672
C 0.10296983 -1.81312780 -0.00326963 3.49731968 0.04323341 1.20619694
C -2.10681178 0.79090873 -0.30581956 2.37044596 -0.87031442 -1.94445774
O -1.21690252 0.63714426 0.77156831 1.24149171 0.76948629 -1.11520420
H 0.87755666 -3.61710431 0.48145932 -0.37607174 0.68638736 -0.22725617
H 2.94261735 -1.33010692 -0.14183031 -0.57684843 -0.10966723 -0.29036730
H 0.31495172 2.85706442 0.82394701 0.13082612 -0.76435252 -0.04058949
H 4.02567851 0.93419628 -0.41365591 0.89351786 -0.11665358 -0.22998895
H 2.77872912 2.92155135 0.16465252 -0.77729165 -0.59367496 0.39560503
H -4.24360457 0.79187247 -0.89214710 1.83935731 -0.10125010 2.27874283
H -3.62943894 -0.41036126 0.37581856 -0.07103789 -0.35029751 0.23545964
H -3.73972861 1.24664716 0.87674400 -0.94880851 1.60240170 2.12194754
21
Properties=species:S:1:pos:R:3:forces:R:3 energy=-17617.91409096 pbc="F F F"
C 2.12317643 0.17756984 0.82454265 -0.50796687 -0.53143056 -0.43058592
C 0.62248141 1.21654331 -1.30290213 -0.10019559 0.45530564 0.19491190
C 2.64404921 1.25326410 0.14511058 -0.88174822 0.41707636 -0.71202635
C 1.85070870 1.79276081 -0.90129721 -0.24256422 -0.13366122 -0.96374575
C -3.36737996 0.22954249 -1.49029941 -1.37504613 -0.33919548 2.59966379
C 0.89156585 -0.38850048 0.44970193 0.23371216 -0.70052462 -0.45528795
C 0.15813575 0.04347586 -0.67138637 -0.06155062 1.44557987 -0.29879558
O 1.20519670 -1.84778420 2.29443976 0.95506370 -0.89154305 0.98682551
O -1.86285747 1.52268563 -0.04558979 -0.18523766 0.25577125 0.16434446
O -0.56017295 -2.07193316 0.99041352 -1.75350750 0.46664107 -2.26919483
C 0.57877985 -1.53353273 1.31093580 -0.02930086 1.58327197 0.05746899
C -2.05588678 0.58535565 -0.77555271 -1.73517595 -1.09243569 -0.80616889
O -1.12975876 -0.35076243 -1.12451873 1.59542033 -0.26151397 0.93270333
H -0.60950462 -2.82599323 1.52935978 -0.65954632 -2.49131343 1.82228945
H 2.56092673 -0.43075395 1.62304018 0.59151647 0.52932518 0.33127047
H -0.11298145 1.77701506 -1.97890735 1.26598039 -0.74584140 0.36034301
H 3.57874501 1.66617429 0.47820941 0.83908436 0.54990584 -0.07708620
H 2.14749164 2.61160944 -1.57818842 0.41257935 0.31094754 0.57059818
H -3.45062658 -0.62530974 -2.16575545 0.63204560 -0.50605413 -0.02718649
H -4.23912869 0.13086173 -0.70484235 1.45295524 0.07510738 -0.98111576
H -3.66632367 1.08370616 -2.03973951 -0.44651766 1.60458148 -0.99922543
21
Properties=species:S:1:pos:R:3:forces:R:3 energy=-17617.91761101 pbc="F F F"
C 2.13061357 -0.86748310 -0.13389935 0.05956496 -0.23653811 -0.76563452
C 0.91865916 1.11013482 -1.77431693 -1.28340727 1.16404401 -1.09830727
C 2.69207547 -0.46542302 -1.37186380 -0.69288294 2.00781919 0.59355021
C 2.14561976 0.63046278 -2.07462409 1.81072782 -1.26010860 -1.56661050
C -3.10757836 1.57914526 0.08648765 2.12121333 -1.39109845 1.30614524
C 0.87883607 -0.34086747 0.31337812 1.54560150 0.30903989 -2.43225117
C 0.33347018 0.63164050 -0.64519602 -1.87280032 -1.60569750 3.83733375
O -0.44985580 -0.08346099 2.26055658 -0.21597587 -0.82071275 0.41835163
O -2.31682820 -0.65821059 -0.32949669 0.53423542 -0.60352260 -0.43880939
O 0.58499440 -2.12246768 1.83296025 -0.57583048 0.24413588 0.14764911
C 0.24620890 -0.82132995 1.58658095 0.12426045 0.86353591 -0.87541395
C -2.10514579 0.52342973 -0.27493092 -0.07104864 0.65991255 0.75009945
O -0.88773124 1.17352441 -0.32177046 -0.28824357 0.37551170 -0.59777772
H -0.02867549 -2.48847686 2.51242612 0.25840411 0.36151189 0.06215771
H 2.69028623 -1.62381935 0.43093433 -0.23582978 -0.14503486 0.26688217
H 0.33699268 1.75478874 -2.48634380 0.41794308 -0.10095098 0.77499277
H 3.62022724 -0.70734130 -1.84105853 1.26053232 -1.23627340 0.34031001
H 2.65764145 0.99654107 -2.99614457 -0.10906795 -0.21290438 0.37280448
H -2.95325403 2.45214470 -0.47325792 -0.29101640 1.76112589 -1.14837102
H -4.02048922 1.09731347 0.18670628 -2.71589386 -0.65115116 -0.45931831
H -2.82416744 1.76918958 1.12726785 0.21951417 0.51735587 0.51221732
21
Properties=species:S:1:pos:R:3:forces:R:3 energy=-17617.90753644 pbc="F F F"
C 2.28416157 -0.36171605 -0.01776965 0.32414435 -1.51356185 -1.15656086