27
Lattice="50.0 0.0 0.0 0.0 50.0 0.0 0.0 0.0 50.0" Properties=species:S:1:pos:R:3:momenta:R:3:forces:R:3 dihedrals="199.6 170.49 260.67" energy=-17660.064453125 free_energy=-17660.064453125 stress="-9.62532112680492e-07 -3.541418607255764e-07 -7.315604193536274e-07 -3.541418607255764e-07 5.271034524412244e-07 2.657209279277595e-07 -7.315604193536274e-07 2.657209279277595e-07 1.1760987490561092e-06" pbc="F F F"
C        1.38963128       1.30881270      -1.84807340       0.00000000       0.00000000       0.00000000       1.34314132      -0.63546133       0.12940511
C        0.25134028       1.61695797      -1.17378268       0.00000000       0.00000000       0.00000000      -0.25587726       0.90328085       0.21974523
C        2.34174165       2.30279245      -2.05237245       0.00000000       0.00000000       0.00000000       0.12905228       2.48888779      -0.11793381
H        1.74670811       0.30770268      -2.08813647       0.00000000       0.00000000       0.00000000      -0.72093391      -0.16024876      -0.18618993
C        0.05520299       2.95681402      -0.72831891       0.00000000       0.00000000       0.00000000       0.62798238      -0.30313009      -1.11911106
O       -0.81096017       0.83736826      -0.91802960       0.00000000       0.00000000       0.00000000      -0.19450924      -2.76135063       0.78866071
N       -1.10099896       3.26937222      -0.10832467       0.00000000       0.00000000       0.00000000      -0.00311238      -0.83580720      -0.18964726
N        0.91391981       3.92808926      -0.99610811       0.00000000       0.00000000       0.00000000       0.93946451       0.35219452       0.01684264
H       -1.73558122       2.55577479       0.18972739       0.00000000       0.00000000       0.00000000      -0.13432239      -0.00726774       0.06476917
H       -1.19481836       4.21421525       0.12159553       0.00000000       0.00000000       0.00000000      -0.49471876       1.39315236       0.63058555
C        2.07766676       3.62803433      -1.63042725       0.00000000       0.00000000       0.00000000      -1.41613889      -2.76578951       0.50154191
H        2.81650095       4.38833396      -1.67628005       0.00000000       0.00000000       0.00000000       0.50184393       0.85945201      -0.35280818
H        3.23433192       2.10381485      -2.63100063       0.00000000       0.00000000       0.00000000       0.23855805      -0.17407896       0.12323631
C       -0.57931678      -0.63039174      -0.91326348       0.00000000       0.00000000       0.00000000      -1.14163995       1.90138328      -4.74937916
C       -1.77506852      -1.28327640      -0.40022312       0.00000000       0.00000000       0.00000000      -3.77926135      -0.95901769       1.27440059
H        0.20195626      -0.97701420      -0.35217348       0.00000000       0.00000000       0.00000000       2.78295565      -0.08935431       1.83248091
H       -0.31077873      -0.89430482      -2.04282024       0.00000000       0.00000000       0.00000000      -0.81271839       0.28946063       2.20059299
C       -3.00526392      -1.38331587      -1.13839590       0.00000000       0.00000000       0.00000000       1.77804518       0.71442324      -3.38650227
C       -1.88488065      -1.72681611       0.94414745       0.00000000       0.00000000       0.00000000       1.08469915       1.66551709      -0.16051871
C       -4.15739837      -2.00672026      -0.71479091       0.00000000       0.00000000       0.00000000      -0.90993333      -0.59136140       0.58784783
H       -2.95735117      -1.01520162      -2.24735924       0.00000000       0.00000000       0.00000000      -0.14710289      -0.62697792       2.05861878
C       -4.19469156      -2.42753431       0.61887066       0.00000000       0.00000000       0.00000000      -1.39480841      -0.98079312      -0.73470867
H       -5.04818305      -2.24955496      -1.33679401       0.00000000       0.00000000       0.00000000       0.91173452       0.66333830       0.09434468
C       -3.08464301      -2.27809040       1.38882121       0.00000000       0.00000000       0.00000000       0.57753986       0.21466561       1.20303249
H       -5.07725553      -2.96292210       1.05906295       0.00000000       0.00000000       0.00000000       0.74129128       0.69647682      -0.59470433
H       -3.24228124      -2.56751763       2.40845989       0.00000000       0.00000000       0.00000000       0.57205749      -0.17029747       0.74813497
H       -1.09224915      -1.37255578       1.68160820       0.00000000       0.00000000       0.00000000      -0.82328856      -1.08129549      -0.88273561
27
Lattice="50.0 0.0 0.0 0.0 50.0 0.0 0.0 0.0 50.0" Properties=species:S:1:pos:R:3:momenta:R:3:forces:R:3 dihedrals="199.6 170.49 260.67" energy=-17660.728515625 free_energy=-17660.728515625 stress="-6.115766950642865e-07 -1.108749415834609e-06 -2.240424464616808e-06 -1.108749415834609e-06 1.6741882973292377e-06 -1.1717179404513445e-06 -2.240424464616808e-06 -1.1717179404513445e-06 -3.939265411645465e-07" pbc="F F F"
C        1.41373490       1.30400677      -1.82916774      -0.15185990      -0.16395545      -0.38698788       0.12189882       0.11899817      -0.15638085
C        0.23399507       1.63331390      -1.17812948      -0.05823879       0.37314786      -0.05512887       0.76774913      -0.04523027      -0.60362244
C        2.37078949       2.30710565      -2.06568288      -0.05007722       0.50292232       0.61533992      -0.04068154       0.53441191      -0.01116109
H        1.65065191       0.31793333      -2.22461245       0.14882892      -0.07424431       0.22040513      -0.39874557      -0.16275793       0.29327691
C        0.02007839       2.97640357      -0.77238035       0.10127248      -0.37758178      -0.13257934       1.07819843       0.28141689       0.17507073
O       -0.79950811       0.80990682      -0.89904464       0.26108440       0.52882179       0.06448949      -0.07986259      -1.57200348       0.66545320
N       -1.12986241       3.30717500      -0.12179509      -0.39778478       0.35378201      -0.16357678      -0.49649748      -0.82902992      -0.39839804
N        0.93598822       3.92979675      -0.94856464       0.08949131      -0.20129561       0.22154531       0.60867184      -0.65524608      -0.91710401
H       -1.70920856       2.54283146       0.20640337       0.01719197       0.12578220       0.08828347       0.17479223       0.36516511       0.03782549
H       -1.09819566       4.16123451       0.38366538       0.09369285      -0.23010178       0.05515823      -0.10680214       0.55966437       0.43311605
C        2.07016450       3.58873959      -1.63479268      -0.06115575      -0.29777123      -0.46126562      -0.13761897       0.85844529       0.58491117
H        2.77292663       4.43927888      -1.80176560       0.11705311       0.02951167       0.13802303      -0.52056491      -0.74575597       0.13523331
H        3.31695535       2.10011873      -2.59237377      -0.10331986      -0.20351524      -0.14196467      -0.55507040       0.04759268       0.28909266
C       -0.61688469      -0.64081471      -0.91983526      -0.26766270      -0.43151257      -0.49525425       1.43974543       0.87005723       1.34637415
C       -1.84773047      -1.23017264      -0.38989759      -0.32286726      -0.00332406       0.13684147      -1.52856481      -1.19094205       0.17937136
H        0.23493235      -1.09083037      -0.29740034       0.17556543      -0.27658398       0.27200069      -0.58659375       1.46402347      -0.73942769
H       -0.43874344      -0.91644495      -1.92932758      -0.19009610       0.19669144       0.38371297       0.23373640      -0.46184897      -1.29749238
C       -2.94608424      -1.40371116      -1.25077949       0.41292965       0.44497978      -0.37021641      -1.17412412      -0.86976367       3.41908312
C       -1.92206230      -1.70622682       0.92496556       0.54809796      -0.21153127      -0.68006765      -1.41990483      -0.59939635      -0.11402124
C       -4.11283786      -1.96988698      -0.70170106      -0.10886309       0.02846404       0.42463086       1.17183018       0.08336340       0.50970984
H       -2.92560878      -1.08081855      -2.23211919      -0.01872007      -0.25086305       0.14988181       0.09280089       0.70280272      -2.13662791
C       -4.15463158      -2.45254878       0.61821115       0.20877824       0.59201100      -0.16744739       0.11723882       0.85191053      -0.93122447
H       -5.02842377      -2.04271603      -1.23018403       0.01679242      -0.12049516       0.08180168      -0.68452865      -0.07658415      -0.97828150
C       -3.09710447      -2.30399196       1.47262280      -0.20165538      -0.49178639      -0.00522979       1.68347168       0.34122729      -0.57896739
H       -5.04424078      -2.89265653       0.97864206       0.19751402      -0.01434233       0.02814771      -1.11361074      -0.52891314       0.30357078
H       -3.16726643      -2.70899063       2.49140302      -0.17252880      -0.07779821      -0.00276401       0.34378329       0.33427504      -0.33690339
H       -1.03522375      -1.70944827       1.49983059      -0.28346311       0.25058831       0.18222080       1.00925291       0.32411727       0.82752359
27
Lattice="50.0 0.0 0.0 0.0 50.0 0.0 0.0 0.0 50.0" Properties=species:S:1:pos:R:3:momenta:R:3:forces:R:3 dihedrals="199.6 170.49 260.67" energy=-17660.724609375 free_energy=-17660.724609375 stress="5.301720648276387e-06 9.760085504240124e-07 6.204472242643533e-07 9.760085504240124e-07 1.2613930948646157e-06 -1.0256594578095246e-06 6.204472242643533e-07 -1.0256594578095246e-06 1.7159352410089923e-06" pbc="F F F"
C        1.40705815       1.28133982      -1.80553907      -0.08042331       0.04670303       0.09484685      -0.12206569       1.51932001      -0.60181242
C        0.20292035       1.63433465      -1.18465194       0.26749361      -0.04891853       0.31055689       1.96144295      -0.54114401      -0.65243000
C        2.35986365       2.32555974      -2.07828368       0.34174458      -0.06073353      -0.12626489      -0.53579229      -1.50659144       0.98005116
H        1.59643142       0.31151427      -2.25094998       0.00063848       0.08081383      -0.11054609      -0.12074141      -0.28115633       0.34097260
C        0.04274581       2.97075514      -0.76974009       0.04504807       0.49302776      -0.28360283       0.29657325       1.07676005       0.11097452
O       -0.80941383       0.80358007      -0.86972857      -0.88483149       0.66233444       0.02091640      -0.43352228      -0.57465017       0.61053336
N       -1.13518742       3.33611891      -0.15667629       0.36599489      -0.16508465       0.14562743      -0.78080070       0.11841884       1.59376442
N        0.94682614       3.92647730      -0.96017515      -0.17256574       0.10068940       0.01186249       0.61076558      -0.79742813      -0.31659788
H       -1.57750300       2.55858977       0.36024507      -0.14262973       0.08968234       0.10237528       0.29321343       0.68707019      -0.53650153
H       -1.04487582       4.18204498       0.44321150      -0.01899251      -0.02067659      -0.17199660       0.01844954      -0.93512833      -0.88939404
C        2.10399816       3.57136916      -1.58937124       0.07281919      -0.04765533       0.20269371      -1.50582552       0.67710435       0.06269771
H        2.75419436       4.39623368      -1.80132698      -0.07734103      -0.14938418       0.05979306       0.57624364       0.40120682       0.09894840
H        3.33346292       2.09637226      -2.49290467      -0.09843813      -0.19553535      -0.00300756      -0.05156612      -0.06813119      -0.31638420
C       -0.59245107      -0.60620851      -0.94222471       0.60260586      -0.74632491       0.73246006       0.88160098      -0.21756038       1.51489449
C       -1.81077500      -1.28008167      -0.38633874       0.69394656       0.40993478      -0.59153683      -1.02625608       0.43773386      -0.84421504
H        0.28548432      -0.98907131      -0.28679620      -0.26655936       0.03177186      -0.15886956      -0.91625714       1.08978903      -1.23509955
H       -0.42391458      -0.83057843      -1.98148444      -0.01907572       0.10261342      -0.47706023       0.24106613      -0.61420190      -0.64248067
C       -2.96719750      -1.41814058      -1.17986098      -0.01689172      -0.49686320       0.54857845      -1.20930386       0.39432359      -1.29461575
C       -1.87201629      -1.66476009       0.93067533      -0.13642753       0.14554812      -0.14312369      -0.89489114      -2.40150547       1.70918715
C       -4.18453182      -1.99758872      -0.73121682       0.16994481      -0.11872410       0.03497667       0.88810074       0.44740489       0.04742819
H       -2.97007958      -0.96420911      -2.21304096      -0.01348460       0.24508901      -0.23559817       0.20108667      -0.69270742       1.03145790
C       -4.21626509      -2.42669071       0.59866786      -0.18692533      -0.44196018      -0.07575734       0.02241957      -0.31091803       0.95787942
H       -5.08881370      -2.10386103      -1.37282483      -0.17659472       0.08890394       0.11348651       0.91671795       0.26174843       0.38065451
C       -3.06362271      -2.33478912       1.40534937      -0.14333814       0.44416752      -0.13866940       0.60024524       1.18605471      -0.76124227
H       -5.15101443      -2.80635719       1.07729230      -0.08542438      -0.02208514       0.15572594       0.77525550       0.12984475      -0.62365490
H       -3.10984515      -2.71693086       2.42661922      -0.26584374      -0.14760519      -0.09542050       0.10672232       0.11909300      -0.11104715
H       -0.96907904      -1.69582901       1.59248415       0.22555107      -0.27972865       0.07755420      -0.79288149       0.39525026      -0.61396855
